    1C
    1UUSER                                                              
    1UDATE              22.june.2025                                    
    1UTIME              14:59:39                                        
    1UHOST                                                              
    1UPGM               CalculiX                                        
    1UVERSION           Version 2.22                             
    1UCOMPILETIME       Mon Aug  5 19:15:25 CEST 2024                    
    1UDIR                                                               
    1UDBN                                                               
    1UMAT    1STEEL                                                     
    2C                             6                                     1
 -1         4 0.00000E+00 0.00000E+00-5.00000E-01
 -1         6 0.00000E+00 0.00000E+00 5.00000E-01
 -1         7 1.00000E+00 0.00000E+00-5.00000E-01
 -1         9 1.00000E+00 0.00000E+00 5.00000E-01
 -1        10 0.00000E+00 1.00000E+00-5.00000E-01
 -1        12 0.00000E+00 1.00000E+00 5.00000E-01
 -3
    3C                             1                                     1
 -1         1    2    0    1
 -2         4         7        10         6         9        12
 -3
 9999
