
                        S T E P       1


                                INCREMENT     1


 displacements (vx,vy,vz) for set ALL and time  0.1000000E+01

         1  0.000000E+00  0.000000E+00  0.000000E+00
         2  4.333333E-04  0.000000E+00  5.205251E-04
         3  0.000000E+00  0.000000E+00  0.000000E+00
